[Molden Format]
[Atoms] Angs
 C     1    6    -0.00210    -0.00063    -0.00001
 N     2    7     1.28587    -0.00077     0.00001
 H     3    1    -0.58316     0.93103     0.00000
 H     4    1     1.83665     0.85914     0.00003
 H     5    1    -0.58341    -0.93214    -0.00003
 H     6    1     1.83641    -0.86084     0.00000
[GEOMETRIES] XYZ
           6
 
C      -0.00210000     -0.00063000     -0.00001000
N       1.28587000     -0.00077000      0.00001000
H      -0.58316000      0.93103000      0.00000000
H       1.83665000      0.85914000      0.00003000
H      -0.58341000     -0.93214000     -0.00003000
H       1.83641000     -0.86084000      0.00000000
           6
 
C      -0.00265051     -0.00086530     -0.00030634
N       1.28569372     -0.00152909     -0.00228266
H      -0.57715083      0.93360942      0.00047122
H       1.83738157      0.87077161      0.01762503
H      -0.58421375     -0.93198257      0.00942880
H       1.83947712     -0.86185979      0.00785846
           6
 
C       0.00360322      0.00323093     -0.06912457
N       1.28501321     -0.00016296      0.04147519
H      -0.60886881      0.90600719     -0.08049511
H       1.83351891      0.81928685      0.26464143
H      -0.57987762     -0.92661180     -0.12634198
H       1.80618666     -0.85589847      0.18899982
           6
 
C       0.00408647      0.00274087     -0.07014651
N       1.28423870     -0.00097765      0.04162475
H      -0.60762407      0.90788399     -0.07118058
H       1.83684473      0.83032828      0.26139990
H      -0.58169408     -0.92302458     -0.12731582
H       1.80844006     -0.85524924      0.19399068
